64
Lattice = "10.8618 0.0 0.0                         0.0 10.8618 0.0                         0.0 0.0 10.8618" Properties=species:S:1:pos:R:3:forces:R:3 energy=-297.52255476 stress = "4.6358138 -7.27993256 4.41105215                             -7.27993216 11.33995187 -2.25721427                             4.41105229 -2.25721417 11.11151408"
Si 7.510286141922 10.022327104704 7.815032514600001 1.0221349 -0.52437663 0.06005236
Si 3.264505626414 2.0632666876320003 1.550822604624 0.5841368 0.15504071 -0.13847365
Si 8.202239283282001 2.039125033716 6.475304974110001 -0.79404675 0.55565653 1.61723151
Si 3.8208447414360003 8.121889009164 2.418733212972 -1.34830498 -0.71969514 -0.28408566
Si 0.136377610878 2.4335479478460003 7.788199089408 -0.43466291 -0.00414343 0.83489776
Si 4.363795275924001 3.223818192558 4.515962685462 -0.96270177 2.48810825 0.55424777
Si 9.639917124138 4.449500417442 3.3746364579179997 0.85740485 -0.53830635 0.44988442
Si 5.465588461716 5.485500530712 4.859251829586 1.75382138 -2.86407925 -1.33286321
Si 2.473637765466 0.015480454596 6.523459895466 2.39422229 -0.3118624 1.23852882
Si 7.611629342754 1.9186651735020002 0.7650128667 -0.07585828 1.89012228 0.05480415
Si 9.31896060114 9.075457292964002 6.138494567832001 -0.09747019 0.25949042 -0.28627773
Si 8.77818253527 6.778358861112 6.70373840373 -0.7912387 0.39174776 -0.43321286
Si 3.086252192142 2.6231215500780003 9.802965124590001 0.99222106 -0.31300761 0.91860813
Si 8.917661298666001 9.58724814732 10.329648701544 0.66715586 -0.65336455 -0.49981322
Si 6.705517892424 6.88790673981 10.141772146944 -2.31328501 -1.98406558 3.95986162
Si 10.852457874438 5.915117197494 1.5809642082420001 -0.67245625 0.33305392 -0.49670757
Si 8.987652999978 7.565734001652 1.628802725364 0.10266135 -0.51852557 -0.23654746
Si 6.199677783816001 3.917789239122 2.0533241217660003 -1.3892926 0.28375743 -1.65982125
Si 2.96536481148 9.138372748812 0.49322467099800005 0.63157508 -1.7536311 -0.63188825
Si 6.662512659066 7.679622581484 5.123181078516001 0.51409942 0.32816932 -0.71656714
Si 1.6987757443800002 2.775151449228 5.956389973752 -0.02754187 -0.33036772 -0.25684677
Si 5.845916343840001 2.687532241314 10.36511595432 -1.35412441 0.56732778 -0.58245742
Si 3.1847063714100003 7.0768228772879995 7.680458940084 1.40548166 -1.33884264 0.86003952
Si 10.022008310874002 10.826807190648001 7.833001298958 0.15262691 -0.15136485 -0.40344528
Si 1.15272644697 5.330639177538001 3.539572890918 -0.04975668 -0.05271062 0.35615923
Si 6.824833896480001 4.3226555567160005 8.816154519126 -0.22672257 1.17984869 0.59619675
Si 2.850231795222 10.495673486904 3.66921325311 -0.4405265 -0.10721545 0.33061059
Si 0.031735681386000004 7.602253654230001 4.320337322742 0.02632326 0.61763593 0.16869902
Si 5.201068873956 10.061032585914 7.485707191938 -1.02534351 0.08952093 0.60760418
Si 0.93707301123 0.45500927420400006 5.131560088272 -2.32923794 1.06900457 -1.94228444
Si 7.833352026480001 7.769083733442001 8.700331887186 2.5532884 2.18972137 -3.50715031
Si 1.9029278373360001 8.478292038900001 6.643944520584 -2.38311567 1.13858237 -1.83418996
Si 9.876560553906 0.250021365738 3.3789610835880004 1.38948396 0.06444186 -0.81427403
Si 7.474995067542 1.310316175686 8.781618448464 0.18557284 0.14731476 0.27007107
Si 2.4362087629920004 7.6492484267280005 4.30385953767 0.20042493 0.34486493 0.09773432
Si 5.131529349378001 6.136385097654 2.496519776436 0.81910591 -0.2850701 0.19646128
Si 3.6075023708820004 0.35311787832600006 9.692278494780002 0.66055269 -0.79616527 -0.31128707
Si 5.896764665742001 0.323380116432 10.829065141632 -0.85239455 0.12300382 -0.75825055
Si 3.0978416241240003 4.975928742096 8.68612552173 -0.51308769 -0.51772753 2.33149559
Si 3.433641883002 4.582227811812 6.5455970041919995 0.36885494 -1.14502607 -2.293771
Si 2.0332351140480003 0.21273943203600001 0.7986224258219999 -0.01036496 0.52404305 -0.27755894
Si 1.76546393784 2.5488701766600004 3.480256383882 1.32998699 0.8058897 1.35236404
Si 8.770658131938 3.2925845742120003 9.44588182032 0.80485008 -0.73675427 -0.27337766
Si 5.623243578468001 9.179172710916001 3.0853426250100005 2.35618802 0.73466844 0.81206099
Si 8.094687803424 1.338224593224 4.344768660864 -0.67294337 1.16681458 -1.14954709
Si 6.192539843328 0.23361526854600004 5.642269324584 0.92316036 -0.50415486 0.79573043
Si 0.69699953364 9.441475296678 2.765868086004 -0.01628301 -0.08484896 0.30711654
Si 0.11454810832800001 8.811902558898 9.046076667054 0.37775443 0.81567882 -0.15957848
Si 0.6148796550660001 1.7249298726000002 1.65788432592 -1.96119949 0.47492487 -0.01826586
Si 5.037834050544 5.097279487146 10.394907699360001 0.09139237 0.09258678 0.10393931
Si 4.43252896356 7.144615064100001 5.6249143405440005 -2.43247927 2.53485995 1.48547242
Si 6.807360627438 9.214685040162001 0.769203131904 -0.74682918 -1.61844493 0.50173738
Si 4.600637802486 1.0806818654580002 4.345031299188 -1.71029717 -2.35440509 -0.27463645
Si 9.59688419319 4.003943081598 6.449903785866 -0.08079365 0.28115949 -0.21011256
Si 6.359953852908 3.9147653140020005 6.593652974550001 -0.25245183 -0.49894908 -1.0018046
Si 8.349924679668 10.821522056004 1.452087647826 1.2349683 -1.07968371 0.70828608
Si 9.979477955412 3.782646397668 0.642018296838 0.40938169 -0.12831718 0.20794855
Si 7.817114287188001 5.333649742644001 2.33516154621 0.82859413 2.4547637 -0.34776229
Si 10.561926773892 6.648921505962 8.194187974032 0.01388404 -0.20259234 0.68680693
Si 7.798234740900001 9.930680993058001 4.3542490571400005 -0.50521549 -2.11880803 0.02347715
Si 1.051311015168 3.650423316672 9.86351042706 -0.09793812 0.42499951 -1.12526141
Si 9.072452810466 6.085046799954001 10.252501137774 -0.13716953 -0.1735591 0.61976744
Si 2.6634951865320002 8.90414628678 9.023707658898001 -0.35623844 0.9299608 1.51591463
Si 6.138745258176 1.915850881122 2.9390480821140006 1.44718186 -1.11252277 -0.40399691
64
Lattice = "10.8618 0.0 0.0                         0.0 10.8618 0.0                         0.0 0.0 10.8618" Properties=species:S:1:pos:R:3:forces:R:3 energy=-297.86995033 stress = "0.9443613 -12.56828324 7.5272831                             -12.56828331 9.70980991 0.63031401                             7.52728278 0.6303139 8.20691757"
Si 7.465759279002 9.98010641916 7.6939777536000005 0.3232348 -0.13984633 0.14762114
Si 3.287190061242 2.1611770165740003 1.662420648072 0.11352938 -0.73831631 -0.72817245
Si 8.199840671988001 2.070788701368 6.4318412641739995 -0.61298053 0.47307887 2.13294465
Si 3.88910985102 8.060710355136 2.449999230126 -1.60051998 -0.17157053 -0.30744636
Si 0.167705431674 2.471088066534 7.927880425374 -0.50637139 0.18892775 0.02356225
Si 4.3562204738400006 3.2087963231580003 4.57368457164 -0.79451474 2.13903973 0.72209157
Si 9.733001663958 4.462705868028 3.3399342017160003 -0.49573221 -0.81175352 0.85996936
Si 5.551322495622 5.50882146702 4.938556220982001 1.29955619 -2.79612182 -1.57483862
Si 2.388131612124 0.060291027732000006 6.552474478716 2.47595997 -0.35772712 1.80256756
Si 7.62272651796 1.9698335926500001 0.713830761684 -0.51382496 0.61384832 0.08917978
Si 9.41763027852 9.078633934992 6.078685586784 0.00560824 0.44948328 -0.28927741
Si 8.7125430486 6.90426026589 6.7136388258120006 -0.35538154 -0.22263109 -0.51252094
Si 3.1696550665320005 2.648471144772 9.810071348622001 1.43407099 -0.83216705 0.99486495
Si 9.019155804372 9.49618716084 10.274826481494 0.02579798 -0.5830762 0.25788837
Si 6.583229122326001 6.59094349854 10.177387011582 0.95708046 1.0338819 0.79816177
Si 10.802991716586002 5.780966255616001 1.723119645012 -1.26391927 1.43912271 -2.31478392
Si 9.124593360714 7.642843331886 1.5701305403040002 0.03539775 -0.75639193 -0.14281454
Si 6.083210286810001 3.898287854784 1.9584578122740002 -0.55046192 1.3510648 -1.89049364
Si 3.0004238778120005 9.236389523394 0.4884285345900001 1.18245077 -1.75025306 -0.14053282
Si 6.690946570488 7.645960234014001 5.144885453130001 0.72808313 0.44897053 -0.6288114
Si 1.7811204622140002 2.802704360052 5.969382750294 -0.06154982 -0.53899585 -0.14581425
Si 5.874609091956001 2.837875085688 10.26015512238 -1.56046401 -1.62958297 0.74784854
Si 3.2481636138420003 7.0681954581660005 7.720189775214001 0.86655875 -0.03672335 -0.10645357
Si 10.098912461706 10.847813585994 7.827994552248001 0.12431134 0.09488106 -0.5289087
Si 1.1855763318 5.4466443963360005 3.4420481558760003 1.28005465 -0.40995353 1.97440823
Si 6.819393872568 4.375952888664 8.910144824448 0.64335682 1.3605489 -1.97191843
Si 2.806500450534 10.362643374168002 3.8051506352340003 0.00748001 0.14544554 0.47912503
Si 0.0368269329 7.716009394248001 4.4054768903340005 -0.30398123 0.26796842 0.17869107
Si 5.032409015916 10.096849480032 7.555866273588 -0.83260567 0.07395884 0.64666571
Si 0.9184902093180001 0.453506870028 5.106043221858 -2.34855478 1.20853522 -2.14749799
Si 7.925360813628 7.747991529876 8.748458242008 0.14567081 0.92763129 -0.32972826
Si 1.8495921632340002 8.442369676704 6.581817631416 -1.66487577 0.76310107 -0.52383029
Si 9.904829148732 0.23845995720000002 3.5306680614240005 0.70456429 0.46133481 -0.93731686
Si 7.418342308338 1.333440947886 8.721793174716 0.29925661 -0.12836868 -0.2452932
Si 2.385554758692 7.709933629182 4.389524925000001 1.24370235 0.21499022 -0.83446207
Si 5.0979768147060005 6.049381862418 2.369887046664 0.99847135 -0.45404682 0.71361925
Si 3.680028130134 0.312250573062 9.552877719108 0.20138053 -0.44454473 -0.47664799
Si 5.716116964896 0.16779558461400002 10.815151718922 0.32995862 0.49771775 0.00418723
Si 3.0197835156600004 5.047798557246 8.723097459660002 -0.66018438 -1.13163936 2.23623981
Si 3.457885420602 4.601807726964 6.589637910180001 0.56548691 -1.093959 -2.1461007
Si 1.8916740349740002 0.221055226116 0.79245629058 0.5582587 0.64446188 -0.11860598
Si 1.7504661816360003 2.5784710798740003 3.422782255362 1.50091506 1.24511976 2.59194964
Si 8.73956775009 3.2886544491180003 9.523311030564 0.85637778 -0.81506229 -0.56929442
Si 5.629342479168001 9.267976506738002 3.117341161956 1.987591 0.7365328 0.76196417
Si 8.000304844032001 1.3674395766840002 4.37053361079 -0.54678761 0.52051542 -1.81879161
Si 6.173600665758 0.13283764164 5.667145996506 1.19869942 -0.67705494 0.71950408
Si 0.5729199785760001 9.468951849048 2.693252934138 0.21757641 0.06450347 0.16015289
Si 0.16037719245 8.887115201616 9.00126870075 0.81297328 0.68577307 -0.08331332
Si 0.657821346894 1.8039026532420002 1.680534328842 -2.61830976 0.37009771 -0.7625609
Si 5.0182755331380005 5.027194591590001 10.285659714960001 -1.81601994 -0.12537859 0.66109079
Si 4.4434021684500005 7.197498452850001 5.615764468842 -2.36712805 2.00093834 1.32784344
Si 6.827092390554 9.112879452504 0.815098038534 -0.26078786 -0.40570159 0.30809103
Si 4.718270444778001 1.065682262748 4.275680444076 -2.21573865 -2.32088954 -0.50623575
Si 9.536713296966001 4.040442639846001 6.38486311023 0.24112029 0.29628611 -0.06338056
Si 6.291880562712 3.764693580156 6.567936794106001 -0.32488215 0.17549678 -0.09615189
Si 8.428833701544 10.811332927278 1.449783208338 0.55469039 -0.88699551 0.19466543
Si 9.893915646564 3.797046754872 0.6763861182180001 0.606032 -0.40286618 0.1328004
Si 7.805795857116 5.3488948220340005 2.244708929148 0.53963565 1.57747029 -0.23424248
Si 10.57858128045 6.745011397224 8.177542808622 -0.28859394 -0.40363479 0.24677377
Si 7.877499595344 9.90307887828 4.308184489194 -0.66309865 -1.76041813 0.09569284
Si 1.142121311304 3.587287257666 9.89776582881 -0.51526233 0.89242505 -0.74597206
Si 8.995108756734 5.974108285002001 10.323331370046 -0.08395146 -0.05326493 0.76100897
Si 2.752442249496 8.842830448218 9.063179657334 -0.64635755 1.14205381 1.25101576
Si 6.168733819032 1.9447268678040002 2.8352916065580005 1.41164565 -1.63422757 -0.04481899
64
Lattice = "10.8618 0.0 0.0                         0.0 10.8618 0.0                         0.0 0.0 10.8618" Properties=species:S:1:pos:R:3:forces:R:3 energy=-298.37790886 stress = "2.33276106 -6.94976114 6.12949159                             -6.94976099 2.32686159 7.29158153                             6.12949176 7.29158115 1.83417917"
Si 7.431562313736 9.929738514672001 7.571001431562001 0.09968657 0.13272639 0.36448892
Si 3.3165943658760004 2.2410325357020002 1.7562172875000002 0.10020969 -0.93522933 -0.97973528
Si 8.175867158736 2.1204931671120004 6.456129335154 -0.37604581 0.15358175 1.10243646
Si 3.9093675424920002 7.990220966148 2.473467452442 -0.50815975 0.54189432 0.05919951
Si 0.182529181842 2.515905808458 8.076435526086 -0.75700757 -0.13952355 -0.92306245
Si 4.320159732312 3.264110908602 4.657809104022 -0.44429322 0.22004674 0.15405017
Si 9.815595877338 4.446174860136 3.3352501590840005 -1.46170292 -1.67600334 1.79644836
Si 5.68495641582 5.442345295896001 4.968785044854 -0.19978298 -0.2679268 -1.05300348
Si 2.378177424132 0.097370171628 6.638742695946 0.51210124 0.16014008 0.00887676
Si 7.618380277308 2.0462675361600002 0.6630509777400001 -0.20410621 -0.54667374 0.38111608
Si 9.521961777768 9.099431783778002 6.00658028781 -0.10153645 1.11729787 0.14037752
Si 8.630434574916 7.029743491368 6.705488348328 0.18148381 -0.9113403 -0.60944175
Si 3.306461935746 2.64713145036 9.852447792378 1.0502188 -0.90275058 1.00044592
Si 9.128558786658001 9.379278674754001 10.225508587212001 -0.30455064 -0.39273243 0.96956388
Si 6.483294696954 6.3126817786560006 10.254751376880002 3.13640014 4.36998371 0.79316891
Si 10.711299659526 5.68888893051 1.795453150404 -0.20491063 2.42266888 -3.1199818
Si 9.269830181526 7.699182836778001 1.501905184908 -0.45693204 -0.5262007 -0.32786742
Si 5.939374855434 3.9170504194860003 1.7933889739320001 0.13775638 -0.12453715 -1.44832189
Si 3.0772478685599998 9.281770449648 0.48019181441400005 1.09229285 -0.6863706 0.89903385
Si 6.74327318337 7.625338455006001 5.146213199562 -0.14841278 0.22478748 -0.48604338
Si 1.866680815938 2.8126805974980003 5.977686053304001 -0.05387613 -0.79577427 -0.04621441
Si 5.852114412774 2.9406324928800003 10.172572410114 -1.02196257 -3.40125631 1.15863064
Si 3.345208040088 7.0555960960199995 7.761636774744 -0.11749324 0.67802093 -0.23067218
Si 10.18455427893 0.011632336092000001 7.803652498122001 -0.00375341 0.48868606 -0.7105903
Si 1.2619670453460001 5.557186781442001 3.40349289336 1.43475534 -0.23242147 1.97738148
Si 6.8365675731660005 4.477335626448 8.944414998246 1.44828057 0.30830818 -3.33270409
Si 2.7589326094680002 10.226621161386001 3.965417471796 -0.05353671 0.41524365 0.37323654
Si 0.033453475056 7.846465260384 4.501184554854 -0.07526443 -0.09391658 -0.22479198
Si 4.825383325152 10.135219874712 7.650376207422 0.01732116 -0.64653913 -0.42163805
Si 0.8252950963740001 0.491693917524 5.012408749104 0.61067946 0.53959479 0.63601657
Si 8.034902718336001 7.762474219524001 8.780083784742 -0.65231667 0.35079844 0.89843589
Si 1.732640555802 8.431706647644 6.499192679142 -1.15172769 0.45688368 1.44153075
Si 9.95578956441 0.243340272558 3.657020448138 -1.34348189 0.90543552 -1.53910334
Si 7.368675207186 1.354122575412 8.65061612517 0.34792033 -0.22563312 -0.56115603
Si 2.373125926806 7.78066903794 4.449814540698 1.55718882 -0.38189479 -2.15543606
Si 5.095729399668 5.945125526826 2.2607587593000003 0.65515218 0.75313408 1.14428177
Si 3.7618717931340004 0.25617913739400006 9.3900967017 -1.0202386 0.82586323 0.07174925
Si 5.5347478232939995 0.017632720266 10.801032139248 1.03680216 -0.16615028 0.98687214
Si 2.9143472627340006 5.085501494316 8.836455766416 -0.62083773 -1.26526178 0.58336753
Si 3.502370682828 4.58557878573 6.565286189052 0.35847902 -0.38897623 -0.45974001
Si 1.7604695735820002 0.249477189558 0.781340215842 0.77831303 -0.35014361 0.05563502
Si 1.785720760368 2.651131525446 3.448324864242 1.01337724 0.99042004 2.15214807
Si 8.73556409061 3.2565391478220005 9.584693886432001 0.52748949 -0.57697078 -1.01293445
Si 5.703395624736 9.384803529324001 3.1768478591100004 0.64875322 -0.3054781 0.20416995
Si 7.882840668258 1.415848012452 4.339310606364 0.18857552 -0.48600332 -0.66345415
Si 6.193798182858001 0.0044316144000000005 5.716709150232001 0.85116039 -0.034705 -0.10297578
Si 0.44884824400800005 9.49966347993 2.6214508966200003 0.46169381 0.08718812 -0.20089468
Si 0.238004521926 8.989692954636 8.95042461495 1.33050566 0.02778526 -0.12250896
Si 0.61422772983 1.9018807598160001 1.6816635215700002 -2.16181698 0.51870833 -0.30371173
Si 4.931019978288001 4.946846815686 10.190854774638 -4.14497645 -0.48977436 0.62641074
Si 4.37849313783 7.320033568572001 5.650845150156 0.00461198 -0.17057159 0.34900806
Si 6.838054662204 8.989044179322 0.8751982244400001 -0.0244083 0.38396436 0.25422573
Si 4.768372452402001 0.971367624078 4.185178948914 -1.58049285 -0.93894667 -0.38923462
Si 9.480860835186 4.090108111728 6.313839212064 0.37774005 0.49803924 0.12418458
Si 6.208070370822 3.61117594026 6.535349330364 -0.43534505 0.79699786 0.23907138
Si 8.532609619722 10.770154974534 1.454182997664 -0.01809793 -0.33995645 -0.25252655
Si 9.82381652205 3.7971240908880004 0.718599960828 0.55481727 -0.88042561 0.39082073
Si 7.812785968506 5.42123625654 2.1398347743720003 0.1321772 0.78008776 -0.23828145
Si 10.586460321552 6.833078980242001 8.168988272178002 -0.36001154 -0.47114298 -0.0970493
Si 7.939350486174001 9.81431787795 4.262747841906 -0.46253252 -0.59762535 0.14286485
Si 1.223666057568 3.550250257554 9.908879622570002 0.16765768 0.90586234 -0.01290289
Si 8.909174757090002 5.85525260403 10.423250480280002 -0.21708842 0.2250925 0.4165121
Si 2.824056486492 8.816399344098 9.146411023902001 -0.82221808 0.83760926 0.06489409
Si 6.24865396587 1.922588129808 2.7224555351460005 0.74925547 -0.76016909 -0.01057689
64
Lattice = "10.8618 0.0 0.0                         0.0 10.8618 0.0                         0.0 0.0 10.8618" Properties=species:S:1:pos:R:3:forces:R:3 energy=-297.08194615 stress = "8.58379956 -6.55184945 1.86716323                             -6.55184977 -2.21428523 20.76474879                             1.86716307 20.76474847 9.03178261"
Si 7.402342551084 9.881119359984 7.45919723115 0.72488583 -0.11208938 1.13822256
Si 3.3499803891540005 2.291017453122 1.8198677613540002 0.01590429 -0.98098789 -0.8309168
Si 8.138600431554 2.177767655748 6.517310704632 -0.04394317 0.13583695 -0.50684147
Si 3.9113140856700004 7.934894215488001 2.4985452849 0.19867383 0.78202505 0.01228777
Si 0.17136194802600002 2.557429166442 8.199212425476 -1.05832754 -0.4259937 -1.20509002
Si 4.2685628151540005 3.3297483315300003 4.747490641902 0.10171844 -1.36877941 -1.08678495
Si 9.854832283332001 4.376078342454 3.388379024514 -0.91675546 -1.12085684 1.43298937
Si 5.818497141774 5.35935278031 4.9624833543480005 -0.7635306 0.84311997 -0.89530424
Si 2.38939777215 0.139410551292 6.7314430539000005 -0.4817084 0.27250695 -0.87309364
Si 7.608109141992 2.108202497322 0.622386679518 0.51140169 -0.96253119 0.17168776
Si 9.623182131642 9.159119981609999 5.93979868287 -0.91322966 1.78802531 1.24546295
Si 8.552681900268 7.128552308406 6.677844198384 0.78540743 -1.09495632 -0.19699839
Si 3.479150869878 2.614712018664 9.930015273336 -0.70183565 -0.91607596 0.87365888
Si 9.232751146248 9.246295593612 10.208077353336 0.22173269 0.08799059 1.59899221
Si 6.473536238598001 6.164324362704 10.363281830772 0.79950272 3.6890831 1.42380829
Si 10.61075175969 5.674505083242 1.771766931762 1.30702004 2.11787483 -0.95257796
Si 9.404313820338 7.739462410044 1.420905701004 -0.63273147 -0.0376215 -0.43489992
Si 5.79508040439 3.930958954386 1.573511275554 0.34577428 -1.98369804 -0.93757039
Si 3.1940432833080004 9.304119254856001 0.501878049822 0.92817407 0.20851003 1.61547235
Si 6.792110660238 7.611630211698 5.129935923318 -1.05191079 -0.12239168 -0.54240528
Si 1.951472154222 2.7953312615940002 5.985002018694001 -0.31213658 -0.98929328 0.20682367
Si 5.797693427616 2.9376233398080003 10.11823430049 0.7428817 -2.39580103 0.03885519
Si 3.4408132778340006 7.062674296608001 7.798213669008 -0.97387453 0.29127519 0.32854345
Si 10.273543377060001 0.054901945662000004 7.754254769610001 0.19381938 0.81338287 -0.81929229
Si 1.385022224052 5.660895899550001 3.427089828006 -0.11602013 -0.41615063 0.30774017
Si 6.898835774352 4.589291457588 8.870679125856 0.67199836 -1.50459622 -2.56345237
Si 2.708070710316 10.103828077914 4.142766878454 -0.10113604 1.53786712 0.24613128
Si 0.028622798124000003 7.974980448714001 4.58903066577 0.58951536 -1.04002849 -1.46691118
Si 4.619292183660001 10.145470046754001 7.720961288868001 2.43743831 -3.33918325 -4.69124846
Si 0.7508969800380001 0.553264573914 4.936336612152 3.34286783 0.6877847 2.78514914
Si 8.125626554544 7.78817508483 8.839354889454 -0.9958514 -0.51116699 0.52961106
Si 1.5735888288060003 8.437505762664001 6.459860689308001 -0.40446092 0.42287008 2.05995326
Si 9.958873555284 0.27642466365 3.7306887601320002 -3.83519422 0.48421167 -2.67199169
Si 7.328520653238001 1.367550367044 8.559661149858 0.13792717 -0.30178375 -0.32510013
Si 2.41189147377 7.83813067539 4.442626527312 1.03469847 -1.46864508 -1.83300594
Si 5.115639948012 5.86502768094 2.189058822702 0.23020275 2.15722206 1.73955046
Si 3.8070592707300004 0.232786947678 9.238541245974002 -3.12220011 3.69189866 4.28584893
Si 5.381431126698 10.720228276362 10.819157985234 0.8590026 -0.54546596 1.42500605
Si 2.784742961718 5.084524149552 8.97314641437 -0.52760251 -0.02072762 -1.2103728
Si 3.5598089674080002 4.557214607064 6.52375403301 -0.06263151 0.79164581 1.15199772
Si 1.651664424768 0.26874537105 0.772651101696 0.57932044 -0.6757552 0.43665911
Si 1.8559754258580001 2.7604801987320005 3.5465574627900005 0.25168772 0.69876648 0.73182039
Si 8.75090964165 3.203943596772 9.612788366604 0.50043955 -0.25319138 -1.35423285
Si 5.8034258511840005 9.49550612598 3.2444853738900004 -0.27897551 -1.04334572 -0.54476712
Si 7.769989933416 1.4508527697840001 4.286209438524001 1.3256828 -1.04931916 1.16777027
Si 6.24208420614 10.733981813376001 5.76244504011 -0.10365541 0.89859023 -1.52244798
Si 0.336361488084 9.53491273638 2.541337626978 0.39035513 0.29791842 -0.45820386
Si 0.36168034388400006 9.097048813476 8.894097383892001 1.1977628 -0.3971383 -0.11410451
Si 0.497777720322 2.019054599676 1.672621724778 -0.70680672 0.25512421 0.2803217
Si 4.7163659367660005 4.854813698106001 10.115553934104 -1.26750769 1.00298206 0.68734644
Si 4.308904192062 7.444445060244 5.700318259560001 1.48307295 -0.92372717 -0.15525002
Si 6.848129633412 8.873214704448 0.94581024315 0.09676137 0.55670908 0.32411159
Si 4.764771548466 0.840234959184 4.078971834042 -0.97846775 -0.01443173 -0.19786799
Si 9.435649787484001 4.158069959856 6.2446611681899995 0.24770577 0.60317747 0.17565398
Si 6.108167879142 3.480014926068 6.509740138650001 -0.28976177 1.09473175 0.37176992
Si 8.638762425594 10.715300386320001 1.451274099006 -0.40746162 0.01534533 -0.29979794
Si 9.770241128022 3.767287052142 0.774112231032 0.28915471 -1.17488318 0.38601929
Si 7.825903655748001 5.523570922476 2.02498546833 0.04137685 0.24405485 0.09137104
Si 10.582630559490001 6.908334961542001 8.157855144414 -0.25833268 -0.22309464 -0.1740341
Si 7.987158047166001 9.701593248606 4.220755797252 -0.1502762 0.22741659 0.09110143
Si 1.311614703876 3.5409469086180003 9.920509243212 0.48712223 0.04273408 0.90559225
Si 8.814382850928 5.740770644064 10.539799006314 0.032258 0.46639512 -0.25216353
Si 2.869338244512 8.81774338323 9.234905149806 -0.89385766 0.41221194 -0.9355533
Si 6.353663567292001 1.8722029550580002 2.605203055854 -0.76040328 -0.13460091 -0.25300857
64
Lattice = "10.8618 0.0 0.0                         0.0 10.8618 0.0                         0.0 0.0 10.8618" Properties=species:S:1:pos:R:3:forces:R:3 energy=-296.78879596 stress = "19.04993931 -0.80460043 2.82997112                             -0.80460043 -8.18186485 17.19467455                             2.82997157 17.19467449 9.70782522"
Si 7.397883130476001 9.828551615142 7.388164752162 1.28733956 -0.56411865 1.81924348
Si 3.383251820442 2.3077715623860002 1.8554927274660002 -0.14882992 -0.78312114 -0.34663996
Si 8.100970485780001 2.240091577968 6.561371922186 0.37419325 0.55723388 -1.78956411
Si 3.919252758054 7.906149330732 2.5225627884420003 0.66307837 0.79057549 -0.41455666
Si 0.125970051354 2.584817629614 8.281078572402 -0.8376478 -0.37093805 -0.88326074
Si 4.22078794818 3.3504116026140003 4.799815625514 0.46592677 -2.02605356 -1.98227611
Si 9.863010567024 4.271021383584 3.4864414186559998 -0.10295637 0.13123702 0.09793919
Si 5.925088764366001 5.303640218514 4.925672279676 -0.91392205 1.01492398 -0.83614417
Si 2.385929164938 0.19005173866800001 6.796101068322001 -0.74139959 0.23085642 -0.7295095
Si 7.614889403406001 2.138555145714 0.5871267785040001 1.08560814 -0.77022776 -0.356412
Si 9.692434470228001 9.276851466282 5.914924509162001 -1.51986021 1.82836198 1.78511934
Si 8.502055919412001 7.1901143839740005 6.644452092498 1.14024486 -0.8603226 0.37079236
Si 3.622681410528 2.5515227368380002 10.036032849798 -3.10008964 -0.95894369 0.86517274
Si 9.344233511526 9.119490595692 10.242311574576 1.0925503 0.96813631 1.18783156
Si 6.492708727632001 6.139753341834 10.511486529816 -1.37924209 1.63753289 0.01338835
Si 10.552407818226001 5.728381566366 1.715019892134 1.60378324 0.47178229 0.96143341
Si 9.515527356066 7.777411258266 1.3291934409960002 -0.74379577 0.29553521 0.28191952
Si 5.6616858782640005 3.8857779938700006 1.327237230816 -0.33024327 -1.15963692 0.35692894
Si 3.3375746929020003 9.32967956847 0.5740496057760001 -0.25942817 -0.08921251 1.15547208
Si 6.80622763308 7.595022736734 5.095483379898001 -1.31294566 -0.12940774 -0.59865577
Si 2.024860340394 2.745269008158 6.000735770466 -0.5072758 -0.91202223 0.85786604
Si 5.7696434808240005 2.8554482832900003 10.06549320132 2.56327062 -0.55947835 -1.37545581
Si 3.504035362296 7.079937607056 7.844953840914 -1.1838541 -0.06792451 0.63249858
Si 10.368953211024001 0.12389186316 7.679003458884 0.77644852 0.7015936 -0.55517234
Si 1.5052305249780003 5.748195661926001 3.463376277738 -0.80153456 -0.86531309 -0.54940282
Si 6.984196922664 4.655618713434 8.715629537688 0.16953884 -1.22124199 -0.50343447
Si 2.65558301694 10.035393307014001 4.326643466586 0.15446914 2.66549537 0.33294152
Si 0.042177238344 8.067707418078 4.627028066238 0.69977693 -1.44777809 -2.30135006
Si 4.487008167966 10.054673002014 7.65386186766 1.65470492 -2.40906659 -2.7261019
Si 0.7760546467260001 0.6357301835820001 4.944463736766001 1.61558108 0.44224879 1.50549025
Si 8.181027491298002 7.796120165676001 8.914042689996 -1.35111427 -1.39323338 -0.34670966
Si 1.40375839458 8.456569742316 6.486932313774001 0.51288498 0.09122973 1.41908547
Si 9.846943575228 0.32685111324 3.7212208549260004 -1.87121865 0.39096547 -1.40485706
Si 7.2930113652960005 1.369910418948 8.460788030964 -0.22874 -0.56333569 0.42286788
Si 2.4834530310360003 7.845700372428001 4.37629145097 0.02426033 -2.03808652 -0.45796091
Si 5.146055920698 5.851651265622 2.175506337606 0.66774132 1.26028961 1.70273483
Si 3.75911908716 0.32053497654 9.213274526814 -1.44611783 2.05975527 2.54157814
Si 5.260678540974 10.546280785464 0.020638180326 1.0362504 -0.31120536 0.78828292
Si 2.637101990094 5.084933965266 9.066676939698 -0.98428302 1.94273294 -2.92464834
Si 3.6150444789480005 4.554372725712 6.52027717083 -0.25133889 1.41031993 2.05457792
Si 1.564585374168 0.26630048848800003 0.778709922354 0.4745882 -0.50867839 0.69483295
Si 1.93473422904 2.8926465811320003 3.6681543362280005 -0.14149768 0.64901519 -0.71045893
Si 8.782495104342 3.1433899307160003 9.596182412292 0.30781148 -0.00129134 -1.22658048
Si 5.893048626726001 9.569892728808 3.29362470018 -0.92557572 -1.45539483 -1.01042243
Si 7.700572604088001 1.4512558511820002 4.2697301328 1.44207837 -1.05557606 1.79642826
Si 6.286361356278 10.632323403108 5.756788649142 -1.04062356 1.26369234 -2.49417124
Si 0.237920017122 9.57906323793 2.447771040474 0.09820019 0.37053689 -0.33579515
Si 0.5204279404800001 9.191328694386 8.835069257646001 -0.01598662 -0.19376225 0.01335618
Si 0.358209238458 2.14093626951 1.67193026259 0.61300277 -0.71756938 0.57401038
Si 4.4652751182 4.79339814822 10.067339381466 2.92185261 1.23098497 1.49785453
Si 4.287572594424001 7.5382430030880005 5.745670510662001 1.79167438 -0.80673342 -0.0396878
Si 6.86176347339 8.77742655399 1.0259941144920002 0.32609649 0.55200805 0.3258857
Si 4.726370089038 0.7091506293000001 3.968158881498 -0.90219632 0.50786637 0.08646861
Si 9.399442628892 4.245209945154 6.182197454604001 0.03232881 0.59947864 0.21505827
Si 5.999452557414 3.3871883539980003 6.495900793416 -0.20017994 1.08289555 0.19141748
Si 8.730680299476 10.660979764194 1.43876326053 -0.48494138 0.17593592 -0.21050163
Si 9.726942191592 3.7004179010940006 0.8414047750440001 -0.16879278 -0.57354037 0.14253913
Si 7.839413019498001 5.633937563658001 1.91747374266 -0.34458075 0.14896544 1.23198504
Si 10.570345429218001 6.975263743872 8.141046508914 -0.10991281 0.14037285 -0.19769682
Si 8.029991012376 9.595090475538 4.182434172054 0.32577019 0.05551403 0.07917789
Si 1.4105544056040002 3.5304620130780004 9.96132799623 -0.45627721 -1.64343552 1.3717748
Si 8.723873426652 5.642877042294001 10.643949982446001 0.87636744 0.36497562 -1.62382845
Si 2.8853898125520003 8.834889060384 9.294407176386 -0.42210122 0.58718596 -0.57461593
Si 6.4336711516200005 1.8160703674560001 2.482713885546 -1.59797596 -0.17321759 0.1187802
64
Lattice = "10.8618 0.0 0.0                         0.0 10.8618 0.0                         0.0 0.0 10.8618" Properties=species:S:1:pos:R:3:forces:R:3 energy=-297.4301913 stress = "25.78947391 3.06757964 1.59234837                             3.06757964 -8.77161652 4.88329027                             1.59234838 4.88329067 -0.16299866"
Si 7.433874247866001 9.762197747886 7.375843995186001 0.8648869 -0.09988889 0.94175794
Si 3.4108947755880004 2.2972273614180003 1.8783908139 -0.18966191 -0.67483235 0.16753561
Si 8.075829872118002 2.31884440716 6.546973194252001 0.33374635 0.86447493 -1.86093469
Si 3.950013701508 7.904818217142 2.5316702991240003 1.26769302 0.68319059 -0.7539236
Si 0.055631315532 2.59924720506 8.330715586368 -0.05884752 -0.15858798 -0.43354643