64
Lattice = "10.8618 0.0 0.0                         0.0 10.8618 0.0                         0.0 0.0 10.8618" Properties=species:S:1:pos:R:3:forces:R:3 energy=-338.01211075 stress = "30.62119376 0.63353559 -1.45711417                             0.63353546 30.33862064 -1.31502816                             -1.45711421 -1.31502827 29.91194115"
Si 0.040104372432 10.776028384266 0.045873074412 -0.34468457 0.20842378 -0.41322657
Si 5.45533470528 10.811237343438 0.08733158745000001 0.0555767 0.99829225 -0.52754433
Si 0.019123502316 5.454670180356 10.85832096546 -0.1589547 -0.13165207 -0.27124441
Si 5.443243566756 5.451029739468 10.838472220758 0.19381065 -0.42638985 -0.07892426
Si 0.042911061552 10.840646535882 5.3814499176120005 -0.96470259 1.34064313 1.00639333
Si 5.490532259562 0.048732443262000005 5.451945606444 -0.4940442 -0.17814988 -0.29926998
Si 0.010443946554000001 5.4209831766 5.527683091338001 0.1638099 -0.19167101 -1.12322082
Si 5.459620988796 5.419300140690001 5.441816977944 -0.50291072 0.57000002 0.10183825
Si 4.137512265468 1.336096766604 4.02383744586 -0.36983823 0.42421666 0.78349861
Si 9.414391941468 1.374963002454 4.015720314102 1.15631371 -0.57538021 0.52811819
Si 4.050733326402 6.751240530906 4.082704708848 -0.18637937 0.30193377 0.08367633
Si 9.53612654253 6.779433962076 4.135495989534 -0.55152459 0.29001835 -0.1483086
Si 4.117967868402 1.326517310712 9.464512848624 -0.31582432 -0.03590611 0.70544031
Si 9.536248303308 1.342786983696 9.505505716296 -0.1160859 -0.32390954 0.33732059
Si 4.07684574531 6.767364004062 9.485228690820001 -0.17511282 0.6329654 0.43080363
Si 9.469854899100001 6.770648286528 9.527249953716 0.23987173 1.745e-05 -0.34153739
Si 0.00047053317600000003 2.6641067058720003 2.717013338874 0.22999498 0.77310963 -0.19825634
Si 5.4508096794 2.716146675852 2.7084975790560004 -0.28367408 0.59584186 0.22742447
Si 10.85394420315 8.233793572608 2.726753114934 0.36674471 -1.56889287 0.58901608
Si 5.410425724236 8.09693315472 2.695770699378 -0.58100488 0.62977066 0.16863312
Si 10.829260545414002 2.728890608556 8.112534392532 0.36369265 -0.10248953 1.09464068
Si 5.424350225982 2.7356437154699997 8.11704051888 -0.66056731 -0.10201166 -0.29527599
Si 0.029870927562000004 8.091763372392 8.133441076554 -0.55085618 -0.10441645 1.03463249
Si 5.41690782924 8.184711922476 8.145142276458 -0.19885511 -0.30013234 -0.08223582
Si 4.087017060684 4.051509293394001 1.332316860204 -0.30494755 0.15175512 -0.03761645
Si 9.552608889558002 4.107531199254001 1.324225796766 -0.48858727 -0.27312588 0.84239321
Si 4.005441684144 9.545135210832001 1.3859177794620001 0.5660247 -1.19818626 -0.22132469
Si 9.457689357246 9.418138502142002 1.4132169586380001 0.31693712 0.85444888 -1.06478473
Si 4.0128644210280005 4.1276018505300005 6.734929257228001 0.42259152 -0.3183017 0.56282582
Si 9.523144301934 4.074270086676 6.82804084293 -0.58715447 -0.6115526 -1.22896967
Si 4.09071463464 9.541415370186 6.7298572311000004 0.3045069 0.34441044 0.66037119
Si 9.641112791082 9.42712675026 6.7965442297620005 -1.44238746 1.03660318 -0.4439868
Si 2.7454464899700004 0.014217770346 2.7211050875520004 -0.71218654 0.24018872 0.27716033
Si 8.186583953706 0.014199196668 2.640740041386 -0.90072973 -0.25143653 0.63677842
Si 2.658173990712 5.3765508113400005 2.716695196752 1.03495004 0.86152431 -0.67604706
Si 8.096296001532 5.39494146801 2.7870160106040003 1.20858396 0.84407618 -0.99562208
Si 2.709342301242 10.846726319814 8.119406979246 0.18809662 0.00959531 0.29249358
Si 8.1476425542 0.006652200792000001 8.119439021556001 1.19000736 -0.79371539 0.52392922
Si 2.674221105414 5.466359758134 8.17080805815 0.14182469 -0.42740024 -0.22577037
Si 8.179416903594001 5.385482686716 8.106801860346 -0.75573778 0.7973771 0.44010728
Si 1.408472198544 1.375715290722 1.31245899159 -0.68387553 -0.75803542 0.82499215
Si 6.832303230486 1.4431984593240001 1.42440667638 -0.08812879 -0.91425174 -0.96961757
Si 1.3382736885600002 6.777334484754 1.340850759228 -0.29959841 0.17987241 0.98205306
Si 6.790693738428001 6.814449255354 1.355093294478 -0.04607204 -0.76917775 0.2972103
Si 1.352558258976 1.407181708086 6.850282442171999 0.218304 -0.40275981 -1.26981601
Si 6.794156371650001 1.3165786550940002 6.874444842126 0.03295366 0.97298487 -1.07669894
Si 1.309941117732 6.794362637232 6.807639775698 1.20714239 0.19284574 -0.29016651
Si 6.7807180440720005 6.824306013 6.780301168188001 0.1278495 -0.32085399 0.39925891
Si 2.663409704166 2.706936955632 10.84686230955 1.48602048 -0.11252575 -0.38407899
Si 8.182367620182001 2.7169150395840003 0.025292135772000002 -0.1009271 0.30567776 -0.72631116
Si 2.65882254879 8.107727937414001 0.054156826182000004 0.97389244 0.29812348 -0.78074083
Si 8.115357265734001 8.13060473472 0.017272217124 0.08408567 0.16843841 -0.53039232
Si 2.7153789638280004 2.754714212202 5.37412591449 0.32971969 -0.86137339 0.38029953
Si 8.081375364108 2.6906182959300002 5.35967103105 0.30255979 0.27966466 1.27470865
Si 2.7177705149520004 8.255726045022 5.4666679074 -0.30082879 -1.61860416 -0.48693562
Si 8.093592499512 8.201434966992 5.466096359484001 0.6400064 0.0101019 -0.67783426
Si 1.4150533631639999 4.0990828912140005 4.064221075170001 -1.69686987 -0.60000763 0.38955862
Si 6.765909500424001 4.106215074948 4.0774239189240005 -0.40919056 -0.69808168 0.09127544
Si 1.338461380464 9.536177158518 4.1187211342320005 0.85908031 -0.06182725 -1.10573565
Si 6.717432526698 9.562321619736 4.015086419454001 0.87957189 -0.4132269 0.11208376
Si 1.36896207519 4.04760197808 9.537947957772001 -0.60268317 0.45218046 -0.72525131
Si 6.778359621438001 4.036969796532 9.427604995314 0.44285735 0.33625317 0.93137779
Si 1.3687360411320002 9.426709874376 9.475762849356 0.06999725 0.44747421 0.26106549
Si 6.781142849070001 9.523190138730001 9.487005898536001 0.1720245 -0.05614319 0.37655143
64
Lattice = "10.8618 0.0 0.0                         0.0 10.8618 0.0                         0.0 0.0 10.8618" Properties=species:S:1:pos:R:3:forces:R:3 energy=-332.44165976 stress = "40.21948848 -0.3621262 -2.90966049                             -0.36212634 39.61691692 -1.72093421                             -2.90966045 -1.72093385 37.36913897"
Si 0.081983454366 10.682508177648 0.09341962635 -0.46097159 0.46029952 -0.77489587
Si 5.482952135196 10.763162908020002 0.18001999742400002 0.1473201 1.65878204 -1.01606778
Si 0.039022319916 5.479914741444 10.852142990856 -0.30359404 -0.30293493 -0.59138347
Si 5.4585356777400005 5.469874527996001 10.811884380864 0.37000572 -0.79620824 -0.12079427
Si 0.08230355161200001 10.828416474936 5.335198200852001 -2.11929212 2.66802094 2.3194479
Si 5.552782756014 0.10141988514 5.472846207858 -0.86100934 -0.34437656 -0.6298172
Si 0.023380241736000004 5.408340475872 5.625922967292 0.25363985 -0.38201757 -2.20886125
Si 5.487366044862 5.411175079818 5.454898060920001 -0.96942769 1.11164273 0.32979495
Si 4.205975059812 1.3155125694240002 3.975461052402 -0.65428759 0.72707362 1.45490366
Si 9.324269957598 1.3894482989340002 3.9561278087280005 2.14231195 -0.89958786 0.88387323
Si 4.024315799532 6.712155321168 4.093986100182 -0.23111907 0.53590207 0.11295172
Si 9.567119276796001 6.771573820506 4.203528982452 -1.03894558 0.4819888 -0.27885654
Si 4.165112642358 1.2914953917360001 9.426328625196 -0.57911527 -0.08105478 1.21531159
Si 9.57097554165 1.323518584968 9.509929075728 -0.28201806 -0.57219143 0.62716844
Si 4.079517530874 6.7489205590440005 9.46782645795 -0.26560337 1.09876364 0.75620585
Si 9.433772108118 6.750552435876 9.55021103859 0.42629507 -0.10937245 -0.62154543
Si 0.002864908368 2.613380144748 2.717006930412 0.40413253 1.40587882 -0.43624437
Si 5.470449768924 2.7219274344300004 2.702649803172 -0.69890856 1.22267561 0.43446833
Si 10.848434663718 8.318043450162001 2.7443235970860003 0.90425037 -2.84853894 1.20534714
Si 5.382891169854 8.047307437026001 2.6753589875820003 -1.05810664 1.2407692 0.40226656
Si 10.796188319538 2.742871374426 8.08413469578 0.7669025 -0.34814167 2.18571397
Si 5.411567190798 2.757149644998 8.082006217452001 -1.26204202 -0.28811417 -0.56893771
Si 0.058317112818 8.030418532824001 8.127974658468 -1.23280819 -0.03322307 2.28343008
Si 5.399749335162 8.224866585042001 8.143080380964001 -0.33625954 -0.53536757 -0.16945249
Si 4.0998525583620005 4.028657043756 1.30377769794 -0.58420008 0.26485048 -0.07798299
Si 9.602362667874 4.143252509532 1.2940170672240001 -1.02084677 -0.72985261 1.58698136
Si 3.934931874972 9.58073323968 1.415167737918 1.13674052 -2.36217369 -0.69727715
Si 9.408511145712 9.329596692936 1.4661080592659999 0.30815679 1.46908123 -1.9724951
Si 3.94927824903 4.185436373574 6.679954646124 0.72296228 -0.55648258 1.04614343
Si 9.539552788722 4.070510165988001 6.861628678452001 -1.02345926 -1.00122411 -2.33277563
Si 4.11284446596 9.585774961386 6.670196948094 0.70396865 0.68426433 1.39552003
Si 9.781310497020002 9.350264417358002 6.801298331004001 -2.8526424 1.99710079 -1.23671203
Si 2.772768913398 0.03216939306 2.7297999584520003 -1.42554969 0.63298978 0.62500726
Si 8.223839058762 0.027911241606000003 2.562823896648 -1.63723228 -0.4472891 1.04337932
Si 2.6032850792100004 5.32357075257 2.712167781276 2.14634324 1.89877525 -1.62386155
Si 8.050784733678 5.3621811930300005 2.85814092351 2.43178136 1.80597194 -2.03377412
Si 2.7040939881 10.830131553156 8.091874488606 0.33683645 0.07704807 0.51309159
Si 8.158957074024 0.007466075466 8.094135698130001 2.26934707 -1.49714329 1.24639045
Si 2.6296648070160002 5.502152647674 8.196085313256 0.32394156 -0.82258647 -0.43521464
Si 8.209820819682 5.341785122226001 8.06656899282 -1.56016851 1.6707222 0.97585981
Si 1.4589719652839999 1.389244205712 1.269218383026 -1.50346471 -1.62745559 1.77574187
Si 6.880267527252 1.5306204169500002 1.4904459859080001 0.01436823 -1.66619266 -1.8210395
Si 1.314130948464 6.766175071434 1.330349136516 -0.58025068 0.21780717 1.96743524
Si 6.792487130226 6.836634590472 1.354712371152 -0.20345985 -1.5480509 0.6252155
Si 1.348785955836 1.458715192332 6.908398611690001 0.56468353 -0.84806961 -2.24952486
Si 6.800296221336 1.279053417072 6.960904335654001 -0.24038634 1.94815779 -1.97953692
Si 1.267018434054 6.802187260716001 6.8262542940660005 2.50125249 0.16753603 -0.66424937
Si 6.772913080446001 6.861294135012001 6.774360523914 0.17376074 -0.58840486 0.74043566
Si 2.617972079316 2.6965965220320003 10.827047888136 2.93282422 -0.10800994 -0.74014868
Si 8.221667784942 2.7210718504440004 0.047431525476000005 -0.0965697 0.54652626 -1.35267641
Si 2.604032805522 8.067585874536 0.10780195296600001 1.90860466 0.81985306 -1.56598285
Si 8.081687097768 8.114519712336001 0.031967254962 0.23997405 0.37055558 -1.12514164
Si 2.718112553034 2.7912170289900002 5.314296730494 0.72540479 -1.63940939 0.82821199
Si 8.011587430163999 2.6652341607120005 5.2909391899200005 0.45665019 0.38419369 2.21918462
Si 2.7176681967959997 8.363813989182 5.50228700814 -0.74561298 -3.0542978 -1.03409265
Si 8.040426703962 8.262766012074 5.4995967575160005 1.37150924 0.03630623 -1.18367784
Si 1.46446119315 4.122676784556 4.057778181264 -3.41717252 -1.32851684 1.00753208
Si 6.73713300783 4.137003933228 4.083036319602001 -0.89937973 -1.47150603 0.29007734
Si 1.32442326429 9.570926229078001 4.159887356232001 1.86629648 -0.53318424 -2.35026831
Si 6.645307893720001 9.623553605202 3.951485584026 1.44316894 -0.81761868 0.19346766
Si 1.376412618282 4.02306734424 9.569510936538 -1.21182583 1.03977157 -1.48545043
Si 6.77069977146 3.9996142198260003 9.350361630468 0.88461271 0.727155 1.78004726
Si 1.381559373594 9.344476164138 9.446525925060001 0.17302597 0.8846034 0.58503092
Si 6.774271783008 9.544005257778 9.471188836758 0.28715681 -0.07553628 0.72913538
64
Lattice = "10.8618 0.0 0.0                         0.0 10.8618 0.0                         0.0 0.0 10.8618" Properties=species:S:1:pos:R:3:forces:R:3 energy=-326.95030479 stress = "47.66275697 -2.10967467 -3.60908666                             -2.10967499 44.69426965 -0.82202802                             -3.60908663 -0.8220282 41.19286135"
Si 0.120082195428 10.592887248612 0.13462180090800002 -0.42168598 0.64603424 -0.80971243
Si 5.511887861778 10.728956601606 0.264170598126 0.24638826 1.8042883 -1.2465589
Si 0.056288780286000005 5.502446242128 10.841025286848 -0.45551359 -0.54341917 -0.72458032
Si 5.476966631688 5.4818953906740004 10.784387191074 0.46617144 -1.12015653 0.02836237
Si 0.10391668710600001 10.838574321678001 5.308498049946 -2.73523298 3.24863509 3.13424967
Si 5.607844261518001 0.151087963854 5.488469386506001 -0.97082047 -0.54787794 -0.7970959
Si 0.038521808172 5.392391225988 5.7056655237000005 0.26643597 -0.55175274 -2.81182944
Si 5.506945851396001 5.412353042028 5.470834276644001 -1.24790326 1.36751773 0.58853298
Si 4.26890354982 1.301048453454 3.9392488973820003 -0.77586733 0.82815339 1.71322059
Si 9.252312813576001 1.396482183378 3.9039506542140003 2.76432543 -0.84283404 1.04541687
Si 3.9959806218720004 6.677656615098001 4.106151750654001 -0.14840342 0.71026963 0.02798385
Si 9.589448096292001 6.767660422584 4.2691603227720005 -1.10179361 0.50305529 -0.4691135
Si 4.20738503007 1.2557232482340002 9.398270857908 -0.65056482 -0.12183962 1.33072542
Si 9.603417783126 1.299450682674 9.51963072687 -0.24742819 -0.69043356 0.6990296
Si 4.079985457218 6.739725828108 9.456778703934 -0.21110903 1.28912764 0.82482689
Si 9.401247860052 6.729523447986001 9.567918270804 0.50565392 -0.1983455 -0.81497754
Si 0.008640670518 2.5744462398840002 2.713323911268 0.42195056 1.71497003 -0.52879415
Si 5.484171263628 2.738010284454 2.7004040174040003 -1.04029171 1.56845441 0.42931595
Si 10.850576610678 8.378401821054 2.771848701702 1.17415615 -3.36802073 1.35059772
Si 5.346520975644 8.008107852534 2.658387968172 -1.22618682 1.52599333 0.6420756
Si 10.769626439346 2.7538573248 8.074087422162 1.07006973 -0.62414312 2.79219172
Si 5.388253749132 2.77622122791 8.042187184506 -1.50075818 -0.40070483 -0.63517454
Si 0.076126663188 7.96898332308 8.14188797256 -1.96598239 0.19586907 3.1352665
Si 5.3797452667200005 8.260603319076 8.139618725304 -0.37744607 -0.56561375 -0.17073003
Si 4.107766031370001 4.008100544166 1.274557066344 -0.68799606 0.39280034 -0.14067613
Si 9.643508904162001 4.172852217948 1.277007053952 -1.26469076 -1.06281277 1.86261995
Si 3.873995764938 9.596488932288 1.4384830260900001 1.47169684 -2.92910625 -1.14298168
Si 9.361958774328 9.25342104303 1.50242481342 0.29641465 1.70036031 -2.36369624
Si 3.8916657411780005 4.238572733646 6.633904958844 0.82466731 -0.63759758 1.34596217
Si 9.547236317424 4.058350163652 6.87555958866 -1.35503002 -1.13003379 -2.95837029
Si 4.140857265396 9.63586882266 6.622352456982 0.92352668 0.77328021 1.82758868
Si 9.897558259812001 9.290230379814 6.795573727932 -3.48500348 2.53922435 -1.82183614
Si 2.788022356374 0.055378452828000004 2.7437553077100003 -1.8315177 0.82689706 0.84707722
Si 8.247277736982001 0.037605506724 2.493623368848 -1.98638303 -0.77378265 1.1893528
Si 2.5664270815620003 5.286495953394001 2.6939426584380004 2.63985231 2.34145804 -2.15606736
Si 8.025689630958 5.34464047221 2.912214331068 2.98212868 2.34206279 -2.49214525
Si 2.70162021315 10.814168508786 8.06869410399 0.29131872 0.10419947 0.64160195
Si 8.18915255217 10.857475157094001 8.07925340286 2.48483272 -1.8242012 1.60837369
Si 2.587865450694 5.530859624748 8.217658694562001 0.48832954 -1.16212894 -0.53936256
Si 8.227169286642 5.312149352634001 8.034503981658 -2.03155853 2.19212585 1.30740336
Si 1.496789602962 1.3891028936940002 1.2408372599520001 -1.99485316 -2.08640118 2.24312664
Si 6.9282749453640005 1.60413090699 1.541160924906 0.06431051 -1.88786466 -2.27213297
Si 1.2851689363260002 6.75690908709 1.3364812743240002 -0.61144425 0.2357594 2.56043977
Si 6.792507767646 6.845851696716 1.359605394816 -0.34579862 -1.91932528 0.79757501
Si 1.3498498691460001 1.5031267029360003 6.947562243624 0.89608614 -1.1193517 -2.68328345
Si 6.804500063790001 1.257935688276 7.030780141560001 -0.38053964 2.41205157 -2.26434251
Si 1.2453136249680001 6.811437712686001 6.838987039116 3.45953345 0.11906871 -1.16085769
Si 6.76657228746 6.893299297656001 6.7746970224780005 0.22665739 -0.72019241 0.90689862
Si 2.597233318722 2.685374327508 10.801012479390002 3.65646663 -0.07223256 -0.84901949
Si 8.260230324864 2.7298053893520002 0.058225982316 -0.12419533 0.64915231 -1.6184593
Si 2.565336339606 8.034439679802 0.148301151828 2.40735707 1.24342472 -1.95924669
Si 8.050009309776 8.101574184624 0.037116399870000004 0.30138648 0.5139667 -1.53154644
Si 2.726989684938 2.8138566045840006 5.261631555306 0.95534684 -2.13819472 1.31096854
Si 7.945649569848001 2.64304632738 5.240899311792 0.50225325 0.35675748 2.65371971
Si 2.711269075944 8.446157186364001 5.529260333316 -1.06346563 -3.82073927 -1.22357799
Si 7.998776262918001 8.324405206422002 5.523154915536001 1.66567424 0.08360964 -1.28948442
Si 1.4850596192880001 4.135230744378 4.059776535228001 -4.33385977 -1.57620451 1.24421461
Si 6.700832763612 4.155528733128 4.091057758902 -1.05068051 -1.76675054 0.33078049
Si 1.326056010066 9.601219897896 4.181308346484 2.40722994 -0.80744079 -2.97545135
Si 6.585267773568001 9.677937443004 3.8894911002 1.6397407 -1.01930258 0.18276238
Si 1.37364731262 4.007259840846 9.588587190024 -1.55095339 1.42974534 -1.95635873
Si 6.7704100872540005 3.968486364768 9.288072574626 1.0347391 1.02206458 2.17357417
Si 1.395880005186 9.269871782220001 9.42226555167 0.32703609 1.33513988 0.81343445
Si 6.769807040118001 9.564260016564 9.461490552774 0.31319297 -0.03323833 0.82380697
64
Lattice = "10.8618 0.0 0.0                         0.0 10.8618 0.0                         0.0 0.0 10.8618" Properties=species:S:1:pos:R:3:forces:R:3 energy=-324.65769967 stress = "46.83244068 -2.16067842 -1.83249755                             -2.16067857 40.09441244 0.32445015                             -1.83249723 0.32445003 38.37888721"
Si 0.154479886758 10.50878932764 0.168909570822 -0.42404622 0.81466297 -0.76646016
Si 5.542820638908 10.710073036452 0.337750277832 0.19092807 1.7056582 -1.32348414
Si 0.069665195604 5.520372122376 10.823869616838001 -0.58199714 -0.68649664 -0.59371566
Si 5.499303814770001 5.484424343568 10.757111147532001 0.42470658 -1.28399253 0.18032916
Si 0.10273318537800001 0.014046371142 5.307920419422 -2.3944239 2.81713772 2.87357212
Si 5.654725636824 0.196134346668 5.497246155378 -0.88231203 -0.69055116 -0.90580705
Si 0.05601104406000001 5.3717996427840005 5.761584894168 0.25107406 -0.51936792 -3.01414204
Si 5.515910312172001 5.42512369476 5.4917430244080006 -1.38449919 1.42166385 0.71490161
Si 4.325192330106001 1.2936356008079999 3.9175305110460004 -0.86013481 0.796547 1.6649315
Si 9.203711037768 1.3964089748460002 3.8607288365640002 2.92906036 -0.60017946 1.165144
Si 3.9663411592680005 6.6492954777360005 4.1185397421720005 -0.08454151 0.87096044 -0.07321093
Si 9.602423276718001 6.768042866562 4.330711971012001 -0.92275168 0.47966476 -0.68474158
Si 4.244107363836 1.218979190868 9.381529131096 -0.64708519 -0.07149016 1.24406889
Si 9.633776514126 1.2695485817460002 9.535287034008 -0.12212785 -0.7178856 0.65096086
Si 4.07859123657 6.741437104698001 9.452696079168 -0.15863798 1.25029615 0.73367586
Si 9.372972639528001 6.70684596471 9.578727499692 0.46744937 -0.23712091 -0.86595035
Si 0.017943802218000002 2.54995092576 2.705233716774 0.29074751 1.7275605 -0.45467477
Si 5.48913336834 2.767110024216 2.7016257526680003 -1.18399698 1.36653698 0.08566963
Si 0.0005794770300000001 8.410145431554001 2.810685393456 0.8246014 -3.38597748 1.03979905
Si 5.299872151476 7.98186704715 2.646795712122 -1.08204088 1.52296305 0.76816896
Si 10.752093430404 2.7595874673900003 8.087652724182 1.14161302 -0.75781949 2.84914509
Si 5.3523801564180005 2.7919752912480003 7.99720390875 -1.35610726 -0.34744643 -0.33053604
Si 0.07714202425200001 7.909182271146 8.181979202214 -2.48337045 0.34158964 2.90716847
Si 5.356620820374 8.291551845816 8.134709083086 -0.26995082 -0.51965135 -0.10097232
Si 4.109921446962 3.990971920038 1.244147393502 -0.61510692 0.562415 -0.21129191
Si 9.673919771802 4.193535583362 1.275809431884 -1.235487 -1.16503932 1.85929074
Si 3.825573426066 9.587717594316 1.452265346874 1.58627694 -2.69965621 -1.1908145
Si 9.318187023744 9.191622288840001 1.518928015104 0.62058804 1.60692883 -2.10503952
Si 3.8410189056660005 4.286263530288 6.599348576616 0.85833004 -0.65367139 1.47721185
Si 9.543330957234 4.03661037957 6.864577874388 -1.60033856 -1.10800439 -2.93108798
Si 4.176466481898 9.692291203086 6.589922489340001 0.70001492 0.40602681 1.81366369
Si 9.98434523661 9.251548251474 6.774660309594 -3.39247796 2.48607772 -1.74939677
Si 2.788027026948 0.08544478417200001 2.764664924418 -1.59690022 0.68056218 0.72029997
Si 8.253915817434 0.040630518024 2.4345536419080003 -1.94940809 -1.09533218 1.2470516
Si 2.5517287851840003 5.268966202992 2.65794708771 2.38236371 1.92239459 -1.68101045
Si 8.025726669696 5.346682925082 2.945330981706 2.78127971 2.19250114 -2.28284029
Si 2.701668982632 10.799117964234 8.050988609664 0.20138538 0.15052179 0.71012791
Si 8.240163366600001 10.830441874782 8.077788689130001 1.90277509 -1.58168067 1.43902557
Si 2.550365412048 5.549780663112 8.234653935786001 0.77561717 -1.3116999 -0.53059658
Si 8.227464075894 5.300982879144001 8.01339287856 -2.00878967 2.22851279 1.27343106
Si 1.5178282578539999 1.371502867446 1.2312252186600001 -2.01294602 -1.90051874 2.02124948
Si 6.976648840608 1.661787079278 1.5726198476280002 -0.13037583 -1.66204087 -2.3348341
Si 1.25107189962 6.749848048146 1.36414160835 -0.41741864 0.45180796 2.53753044
Si 6.7896428592780005 6.838890369096 1.37125934589 -0.38844038 -1.87895142 0.82828298
Si 1.3584229792680003 1.53807921501 6.964005270936001 0.9967063 -1.20867666 -2.65496546
Si 6.805738960698 1.257012652512 7.081612170762 -0.1128363 2.16451324 -1.95992131
Si 1.25267238585 6.821905446582001 6.841950029538 3.55366597 0.32588267 -1.3747649
Si 6.762206278332001 6.919272033816 6.782677186938 0.32227425 -0.67097401 0.88401214
Si 2.60723823132 2.67340505838 10.767841736988 3.44766962 -0.22006642 -0.69783123
Si 8.297689740378 2.743956576864 0.055313064792 -0.23384148 0.61495384 -1.60459251
Si 2.546972511582 8.011610022708 0.17231441926800004 2.4004541 1.23652144 -1.88328763
Si 8.020804536408 8.092895606424001 0.029373022650000004 0.22899604 0.46035946 -1.61501378
Si 2.743994593164 2.8184254035180003 5.220035966352 0.98596297 -2.21906031 1.58539634
Si 7.884192527886 2.6238236568300004 5.213413418274 0.69589319 0.2186523 2.72574893
Si 2.696230696608 8.496185876838 5.546033016258 -0.81802912 -3.92148485 -0.96757642
Si 7.971208797282 8.386687093476 5.535755363862 1.58507979 0.07092713 -1.16290885
Si 1.4691905294879999 4.134694931784001 4.071891786948 -4.14817239 -1.23705804 0.73187217
Si 6.655893478146 4.159363708854 4.101720462108 -0.61643114 -1.37845237 0.08009404
Si 1.347566827404 9.625234794606001 4.177876126302 1.94456888 -0.26700659 -2.629244
Si 6.539115768132 9.723724600578 3.829081135758 1.58116445 -1.07218671 0.16887174
Si 1.3578281871 4.003423127232001 9.591211183668 -1.49580397 1.40312925 -1.96091113
Si 6.778733810448001 3.9459246682800004 9.244126709388 0.84430949 1.03710016 2.13160424
Si 1.412983429938 9.206760596736 9.40484593992 0.44054211 1.75623637 0.85332277
Si 6.767969766648 9.584251376700001 9.458724378168 0.26847144 0.01865162 0.69548753
64
Lattice = "10.8618 0.0 0.0                         0.0 10.8618 0.0                         0.0 0.0 10.8618" Properties=species:S:1:pos:R:3:forces:R:3 energy=-325.28784076 stress = "37.95344711 0.51626698 2.27064387                             0.51626734 30.14561747 1.14016234                             2.27064388 1.14016207 29.31033908"
Si 0.185160452892 10.431673045854 0.196620520836 -0.45705604 0.97626193 -0.73658417
Si 5.57535813837 10.705759055346 0.40004715417000003 0.0486247 1.50468782 -1.32669088
Si 0.07805647919400001 5.532529300644 10.801850901732001 -0.66414049 -0.65080511 -0.11431966
Si 5.525221047132001 5.476026325662 10.731339028818 0.29584653 -1.28181333 0.26834149
Si 0.081494890602 0.07501593552000001 5.331545268894001 -1.38520946 1.76661438 1.88272975
Si 5.694108134028 0.23527006377600002 5.498264883600001 -0.63863985 -0.81644847 -1.01273275
Si 0.07575019320000001 5.3468940784740004 5.791873675176 0.29043338 -0.26062683 -2.85161911
Si 5.513106121266 5.44999178586 5.51862206916 -1.36257488 1.32450339 0.59710748
Si 4.373995157832001 1.293033531234 3.9099528848940004 -1.02508026 0.72081981 1.44276043
Si 9.180037092960001 1.3911733700100002 3.8275704766140004 2.74262644 -0.40371782 1.31319065
Si 3.93594538953 6.628315585182 4.130335439736 -0.067441 0.93836598 -0.13778161
Si 9.607443709296001 6.772621875588 4.386479710752 -0.78712955 0.52279796 -0.78793981
Si 4.27523489304 1.18170355701 9.375407529234 -0.68083186 0.06810512 1.07912044
Si 9.66306948531 1.233534545958 9.556628624502 -0.04407999 -0.66864954 0.68536923
Si 4.0758089865 6.753731358882001 9.454958700726001 -0.14763423 1.01826912 0.67469459
Si 9.34861603059 6.682159808760001 9.582202515366001 0.29361917 -0.25510516 -0.75013352
Si 0.029679977118000002 2.5402249441860003 2.693249349744 0.07153731 1.65332497 -0.33012453
Si 5.484099901602 2.8077119757060003 2.703446733438 -1.1186108 0.80280915 -0.46322467
Si 0.01912274199 8.412902482248 2.858205225366 0.01538874 -3.18900245 0.46289136
Si 5.244065743728 7.968590777628 2.641659166902 -0.72749613 1.35883007 0.75829387
Si 10.744239045588001 2.758892638044 8.125121046372001 0.98760791 -0.71270325 2.2049692
Si 5.305049428446001 2.8047627797700003 7.949453915298001 -0.9611624 -0.24396043 0.17429908
Si 0.05733737845800001 7.85236289193 8.246216756358 -2.28722814 0.50922677 1.528398
Si 5.33124678663 8.318086788744 8.12890106139 -0.0581562 -0.45226451 -0.01392477
Si 4.106898716640001 3.9786395409360003 1.212014713326 -0.4546869 0.73690176 -0.24321683
Si 9.693772426752 4.204394450676 1.2904049756340001 -1.13166621 -1.05541012 1.59802223
Si 3.7906367722200005 9.556169713452 1.4561220462000002 1.51277585 -1.85121591 -0.81784956
Si 9.280002365844 9.1435338417 1.517589298254 1.25927287 1.37508874 -1.5113902
Si 3.797701612794 4.32831705273 6.577370158788001 0.84529732 -0.72819178 1.43422606
Si 9.525725500086 4.0053601120260005 6.8289059853000005 -1.72783454 -1.0534748 -2.28103956
Si 4.21771894659 9.751948444788 6.572962223112 -0.01814613 -0.30957983 1.54271204
Si 10.042152931008001 9.233887616382 6.739165793700001 -3.06991815 1.96812178 -1.07548963
Si 2.7746665784760003 0.12114361052400001 2.7914377407660003 -0.81806064 0.20489299 0.24007173
Si 8.24396336733 0.034387589856 2.386313672658 -1.68055514 -1.20969258 1.39636718
Si 2.557143826956 5.267540483124001 2.6080097449740003 1.70295727 0.98833877 -0.4766279
Si 8.049296775696 5.367232147266 2.9591302468980003 2.12326258 1.58394982 -1.6720105
Si 2.70348952893 10.785381154392 8.039342913558 0.16971149 0.2397064 0.7309874
Si 8.30730449712 10.790055855876 8.088494839536 0.99823895 -0.98335585 0.97667159
Si 2.5195676470920003 5.557606915866001 8.247124802838 1.12684079 -1.25380393 -0.48310549
Si 8.210853233772001 5.3086659733740005 8.002978150248001 -1.535584 1.83677807 0.87522162
Si 1.5218450601120002 1.3379039528880001 1.23857974344 -1.68495689 -1.20965349 1.27989709
Si 7.023742672722 1.7053459385820002 1.5841557309360002 -0.56908473 -1.18386102 -2.17580933
Si 1.213488225114 6.746769270936 1.4129886436020003 -0.09705281 0.82106275 1.82836279
Si 6.783472270698 6.816072659982001 1.3898469269940001 -0.36961598 -1.49831111 0.66253299
Si 1.3753630425480001 1.562781337806 6.957871286622001 0.83785938 -1.1303192 -2.31484666
Si 6.806273035404001 1.2744305263740001 7.115672168730001 0.48676539 1.576906 -1.48734661
Si 1.28984906871 6.8352843601140005 6.833529636324 2.65297317 0.701147 -1.02195365
Si 6.760586566716 6.939636170928001 6.79812961809 0.39793971 -0.41425196 0.71778611
Si 2.646348097344 2.659433959512 10.728753703182 2.53547776 -0.49691642 -0.43989906
Si 8.333126254260002 2.7633176267460002 0.038685929970000005 -0.30739223 0.4944634 -1.50240207
Si 2.548884079764 7.99906562127 0.18036605437199998 1.97302587 0.77901479 -1.51314457
Si 7.993457565312 8.088011598054 0.007991460732000001 0.05074893 0.19738646 -1.41225686
Si 2.769282818688 2.804313861576 5.191786053822001 0.73396517 -1.78426591 1.51296979
Si 7.8287909394240005 2.606415015498 5.209091508054001 1.01692232 0.04812605 2.49713037
Si 2.674533816636 8.512963121736 5.554589507826001 -0.09968804 -3.48294206 -0.55392538
Si 7.957183823886001 8.449436906874 5.538425954628 1.44930256 -0.13886539 -0.96936176
Si 1.41836371395 4.123607314962 4.09002491034 -3.01643641 -0.79289152 -0.12334003
Si 6.605856858558 4.1517312306120004 4.113160978812 0.16404473 -0.46009609 -0.11924782
Si 1.3853101703700001 9.647241453114 4.1524207376760005 0.8233444 0.65209747 -1.5668335
Si 6.506489093292 9.76029780183 3.77018617518 1.38769775 -1.08879117 0.2613601
Si 1.3294830165840001 4.0113397501620005 9.577301888442001 -0.99911647 0.97843203 -1.5120519
Si 6.794129434386 3.93209325216 9.218353938966 0.42507201 0.80390664 1.88251065
Si 1.43379344394 9.158553864594 9.394648556226 0.40046243 1.93541822 0.76419463
Si 6.768404564502001 9.604320290088 9.461919376638 0.18194153 0.0139316 0.55067294
64
Lattice = "10.8618 0.0 0.0                         0.0 10.8618 0.0                         0.0 0.0 10.8618" Properties=species:S:1:pos:R:3:forces:R:3 energy=-326.63793458 stress = "26.43200476 3.97168854 6.14020228                             3.97168877 19.19448764 0.97635484                             6.14020248 0.97635482 18.03067781"
Si 0.21186516575400002 10.362898626468 0.218032061322 -0.52750338 1.10197204 -0.70377039
Si 5.608376381099999 10.714316524476 0.451000075206 -0.09037798 1.24984764 -1.28901389
Si 0.08083840341 5.539215064398 10.778980078416001 -0.65544132 -0.4501644 0.60330519
Si 5.553579577662 5.456744132448001 10.707841153788001 0.06820061 -1.11067927 0.31173877
Si 0.048341418462000005 0.15128640894 5.371399168218001 -0.39724225 0.76721113 0.8275601